User input:
--------------------------------------------------------------
$molecule
0 1
C         -6.49468        2.13362        0.00000
O         -5.42468        2.13362        0.00000
O         -6.85134        1.13631        0.15189
$end

$rem
jobtype         opt
exchange 	  b3lyp
basis 		 6-31G*
GEOM_OPT_TOL_DISPLACEMENT 1
GEOM_OPT_TOL_GRADIENT 1
GEOM_OPT_TOL_ENERGY 1
$end

--------------------------------------------------------------

   13    -188.2823707290      4.51E-09 Convergence criterion met
 Total energy in the final basis set = -188.2823707290
   13    -188.3900153502      8.93E-10 Convergence criterion met
 Total energy in the final basis set = -188.3900153502
   12    -188.4566362179      2.72E-09 Convergence criterion met
 Total energy in the final basis set = -188.4566362179
   11    -188.5055392230      8.90E-09 Convergence criterion met
 Total energy in the final basis set = -188.5055392230
   10    -188.5411303909      2.65E-09 Convergence criterion met
 Total energy in the final basis set = -188.5411303909
   12    -188.5653993847      1.85E-09 Convergence criterion met
 Total energy in the final basis set = -188.5653993847
   11    -188.5784132321      2.75E-09 Convergence criterion met
 Total energy in the final basis set = -188.5784132321
   11    -188.5804846873      1.42E-09 Convergence criterion met
 **  OPTIMIZATION CONVERGED  **
 Total job time:  20.70s(wall), 19.27s(cpu)
        *  Thank you very much for using Q-Chem.  Have a nice day.  *

User input: 2 of 2

/home/dlambrecht/software/qchem41.trunk.20130919.omp.ccman2/exe/qcprog.exe .CO2.in.86737.qcin.2 /scratch/1606476.headnode.localdomain/qchem86737/

                  Welcome to Q-Chem
     A Quantum Leap Into The Future Of Chemistry

 Y. Shao, L. Fusti-Molnar, Y. Jung, J. Kussmann, C. Ochsenfeld, S. T. Brown,
 A. T. B. Gilbert, L. V. Slipchenko, S. V. Levchenko, D. P. O'Neill,
 R. A. DiStasio Jr., R. C. Lochan, T. Wang, G. J. O. Beran, N. A. Besley,
 J. M. Herbert, C. Y. Lin, T. Van Voorhis, S. H. Chien, A. Sodt, R. P. Steele,
 V. A. Rassolov, P. E. Maslen, P. P. Korambath, R. D. Adamson, B. Austin,
 J. Baker, E. F. C. Byrd, H. Dachsel, R. J. Doerksen, A. Dreuw, B. D. Dunietz,
 A. D. Dutoi, T. R. Furlani, S. R. Gwaltney, A. Heyden, S. Hirata, C.-P. Hsu,
 G. Kedziora, R. Z. Khaliullin, P. Klunzinger, A. M. Lee, M. S. Lee, W. Liang,
 I. Lotan, N. Nair, B. Peters, E. I. Proynov, P. A. Pieniazek, Y. M. Rhee,
 J. Ritchie, E. Rosta, C. D. Sherrill, A. C. Simmonett, J. E. Subotnik,
 H. L. Woodcock III, W. Zhang, A. T. Bell, A. K. Chakraborty, D. M. Chipman,
 F. J. Keil, A. Warshel, W. J. Hehre, H. F. Schaefer III, J. Kong,
 A. I. Krylov, P. M. W. Gill, M. Head-Gordon

 Additional authors for Version 3.1:
 Z. Gan, Y. Zhao, N. E. SchultzD. Truhlar, E. Epifanovsky, M. Oana

 Additional authors for Version 3.2:
 R. Baer, B. R. Brooks, D. Casanova, J.-D. Chai, C.-L. Cheng, C. Cramer,
 D. Crittenden, A. Ghysels, G. Hawkins, E. G. Hohenstein, C. Kelley,
 W. Kurlancheek, D. Liotard, E. Livshits, P. Manohar, A. Marenich,
 D. Neuhauser, R. Olson, M. A. Rohrdanz, K. S. Thanthiriwatte, A. J. W. Thom,
 V. Vanovschi, C. F. Williams, Q. Wu, Z.-Q. You

 Additional authors for Version 4.0:
 A. Aspuru-Guzik, Y. Bernard, C. Chang, J. Deng, A. Dreuw, M. Diedenhofen,
 R. G. Edgar, D. Ghosh, W. A. Goddard III, M. Goldey, L. D. Jacobson,
 M. Gordon, B. Kaduk, I. Kaliman, K. Khistyaev, R. King, A. Klamt,
 D. Kosenkov, T. Kus, D. Lambrecht, A. Landau, A. W. Lange, K. Lawler, F. Liu,
 J. Liu, R. Olivares-Amaya, S. P. Mao, J. Parkhill, N. Russ, M. Schmidt,
 N. Shenvi, D. Small, Y. C. Su, E. Sundstrom, L. Vogt, O. Vydrov, M. Watson,
 M. Wormit, X. Xu, S. Yeganeh, I. Y. Zhang, D. Zuev

 Additional authors for Version 4.1:
 X. Feng, M. W. D. Hanson-Heine, P. Horn, H. Ji, A. Laurent, R. Peverati,
 N. Mardirossian, N. Sergueev, S. Sharada, P. Zimmerman

 Q-Chem, Version 4.1, Q-Chem, Inc., Pittsburgh, PA (2013).

 Intel X86 EM64T Linux Version 4.1.0.1

 Q-chem begins on Thu Oct 31 13:29:20 2013

Host: n9
0

     Scratch files written to /scratch/1606476.headnode.localdomain/qchem86737//
 Oct1413 |home|dlambrecht|qclab|programs|qchem|trunk|libmdc|qstr_info.C -1
Finally everything over in PARseQInput

--------------------------------------------------------------
User input:
--------------------------------------------------------------

$molecule
READ
$end

$rem
jobtype         freq
exchange 	    b3lyp
basis           6-31G*
scf_guess       READ
ANHAR TRUE
VCI 3
$end

--------------------------------------------------------------

 Frequency:       641.50                 641.50                1373.00
 Force Cnst:      3.1223                 3.1223                17.7652
 Red. Mass:      12.8774                12.8774                15.9949
 IR Intens:       30.729                 30.729                  0.000
 Frequency:      2438.07
 Force Cnst:     45.0993
 Red. Mass:      12.8774
 IR Intens:      546.027
 Frequency:       641.50                 641.50                1373.00
 Force Cnst:      3.1223                 3.1223                17.7652
 Red. Mass:      12.8774                12.8774                15.9949
 IR Intens:       30.729                 30.729                  0.000
 Frequency:      2438.07
 Force Cnst:     45.0993
 Red. Mass:      12.8774
 IR Intens:      546.027
 Total energy in the final basis set = -188.5741297731
   12    -188.5744306080      3.53E-09 Convergence criterion met
 Total energy in the final basis set = -188.5744306080
   13    -188.5654984130      1.21E-09 Convergence criterion met
 Total energy in the final basis set = -188.5654984130
   12    -188.5654984158      7.84E-09 Convergence criterion met
 Total energy in the final basis set = -188.5654984158
   13    -188.5654984238      1.76E-09 Convergence criterion met
 Total energy in the final basis set = -188.5654984238
   12    -188.5654984055      7.81E-09 Convergence criterion met
 Total energy in the final basis set = -188.5654984055
   12    -188.5554211423      5.33E-09 Convergence criterion met
 Total energy in the final basis set = -188.5554211423
   12    -188.5647618239      7.31E-09 Convergence criterion met
 Total energy in the final basis set = -188.5647618239

                    Orbital Energies (a.u.)
 --------------------------------------------------------------

 Alpha MOs
 -- Occupied --
-19.258 -19.230 -10.397  -1.177  -1.072  -0.573  -0.512  -0.509
 -0.509  -0.362  -0.362

          Ground-State Mulliken Net Atomic Charges

     Atom                 Charge (a.u.)
  ----------------------------------------
      1 C                     0.715288
      2 O                    -0.305084
      3 O                    -0.410204
  ----------------------------------------
  Sum of atomic charges =     0.000000

                    Cartesian Multipole Moments
 -----------------------------------------------------------------
    Charge (ESU x 10^10)
                 0.0000
    Dipole Moment (Debye)
         X       0.0000      Y       0.0000      Z       0.6430
       Tot       0.6430
    Quadrupole Moments (Debye-Ang)
        XX     -14.6146     XY      -0.0000     YY     -14.6146
        XZ       0.0000     YZ       0.0000     ZZ     -18.9742
    Octapole Moments (Debye-Ang^2)
       XXX       0.0000    XXY       0.0000    XYY       0.0000
       YYY       0.0000    XXZ       0.4167    XYZ      -0.0000
       YYZ       0.4167    XZZ       0.0000    YZZ       0.0000
       ZZZ       0.8759
    Hexadecapole Moments (Debye-Ang^3)
      XXXX     -10.6070   XXXY      -0.0000   XXYY      -3.5357
      XYYY      -0.0000   YYYY     -10.6070   XXXZ      -0.0000
      XXYZ       0.0000   XYYZ      -0.0000   YYYZ       0.0000
      XXZZ     -19.1100   XYZZ      -0.0000   YYZZ     -19.1100

       Standard Nuclear Orientation (Angstroms)
    I     Atom         X            Y            Z
 ----------------------------------------------------
    1      C       0.000000     0.000000     0.000000
    2      O      -0.000000     0.000000     1.169125
    3      O      -0.000000     0.000000    -1.169125
 ----------------------------------------------------

 Frequency:       641.50                 641.50                1373.00
 Force Cnst:      3.1223                 3.1223                17.7652
 Red. Mass:      12.8774                12.8774                15.9949
 IR Intens:       30.729                 30.729                  0.000
 Frequency:      2438.07
 Force Cnst:     45.0993
 Red. Mass:      12.8774
 IR Intens:      546.027

 STANDARD THERMODYNAMIC QUANTITIES FOR ANHARMONIC VIBRATION -- VCI 3

   Zero point vibrational energy:        7.256 kcal/mol

   Vibrational Enthalpy:          7.434 kcal/mol
   Vibrational Entropy:           0.781  cal/mol.K

   Total Enthalpy:                9.508 kcal/mol
   Total Entropy:                51.154  cal/mol.K

 Total job time:  42.05s(wall), 39.67s(cpu)
        *  Thank you very much for using Q-Chem.  Have a nice day.  *
